/*--------------------------------*- C++ -*----------------------------------*\
| =========                 |                                                 |
| \\      /  F ield         | OpenFOAM: The Open Source CFD Toolbox           |
|  \\    /   O peration     | Version:  4.1                                   |
|   \\  /    A nd           | Web:      www.OpenFOAM.org                      |
|    \\/     M anipulation  |                                                 |
\*---------------------------------------------------------------------------*/
FoamFile
{
    version     2.0;
    format      ascii;
    class       volScalarField;
    object      T;
}
// * * * * * * * * * * * * * * * * * * * * * * * * * * * * * * * * * * * * * //

dimensions      [0 0 0 1 0 0 0];

internalField   uniform 52.5;

boundaryField
{
    CONE
    {
        type            fixedValue;
        value           uniform 300;
    }

    CIL
    {
        type            fixedValue;
        value           uniform 300;
    }

    IN
    {
        type            fixedValue;
        value           uniform 52.5;
    }

    OUT
    {
        type            zeroGradient;
    }

    SLIP
    {
        type            fixedValue;
        value           uniform 300;
    }

    frontAndBackPlanes
    {
        type            empty;
    }
}

// ************************************************************************* //